# Residuals         
# Time              	Ux                  	Uy                  	Uz                  	p                   	rho                 	T                   
0                   	N/A	N/A	N/A	N/A
0.005               	1.473801553025e-01	1.473802201638e-01	4.912461621684e-01	3.768352262263e-02	0.000000000000e+00	N/A
0.01                	6.246312418725e-02	6.246323947005e-02	2.991704305971e-01	1.955655042053e-02	0.000000000000e+00	N/A
